clean Ni(100) surface                   
   3.53000000000000     
     0.500000    0.500000    0.000000
    -0.500000    0.500000    0.000000
     0.000000    0.000000    5.000000
   Ni
     5
Direct
  0.000000  0.000000  0.000000
  0.500000  0.500000  0.100000
  0.000000  0.000000  0.200000
  0.500000  0.500000  0.300000
  0.000000  0.000000  0.400000
 
   20   20  144
  1534.9      1435.6      1172.4      830.47      504.26      259.16      116.27      57.469      41.638      34.894    
  32.899      34.894      41.638      57.469      116.27      259.16      504.26      830.47      1172.4      1435.6    
  1435.6      1342.8      1096.3      775.89      470.06      240.96      108.65      55.288      40.779      34.218    
  32.279      34.218      40.779      55.288      108.65      240.96      470.06      775.89      1096.3      1342.8    
  1172.4      1096.3      894.09      630.52      379.28      193.29      89.322      49.935      38.342      32.333    
  30.565      32.333      38.342      49.935      89.322      193.29      379.28      630.52      894.09      1096.3    
  830.47      775.89      630.52      441.15      262.36      133.93      66.870      43.825      34.733      29.624    
  28.126      29.624      34.733      43.825      66.870      133.93      262.36      441.15      630.52      775.89    
  504.26      470.06      379.28      262.36      155.20      83.070      49.656      37.889      30.564      26.584    
  25.417      26.584      30.564      37.889      49.656      83.070      155.20      262.36      379.28      470.06    
  259.16      240.96      193.29      133.93      83.070      52.681      39.770      31.907      26.501      23.663    
  22.826      23.663      26.501      31.907      39.770      52.681      83.070      133.93      193.29      240.96    
  116.27      108.65      89.322      66.870      49.656      39.770      32.440      26.733      23.060      21.160    
  20.592      21.160      23.060      26.733      32.440      39.770      49.656      66.870      89.322      108.65    
  57.469      55.288      49.935      43.825      37.889      31.907      26.733      22.912      20.487      19.209    
  18.817      19.209      20.487      22.912      26.733      31.907      37.889      43.825      49.935      55.288    
  41.638      40.779      38.342      34.733      30.564      26.501      23.060      20.487      18.783      17.833    
  17.529      17.833      18.783      20.487      23.060      26.501      30.564      34.733      38.342      40.779    
  34.894      34.218      32.333      29.624      26.584      23.663      21.160      19.209      17.833      17.015    
  16.743      17.015      17.833      19.209      21.160      23.663      26.584      29.624      32.333      34.218    
  32.899      32.279      30.565      28.126      25.417      22.826      20.592      18.817      17.529      16.743    
  16.477      16.743      17.529      18.817      20.592      22.826      25.417      28.126      30.565      32.279    
  34.894      34.218      32.333      29.624      26.584      23.663      21.160      19.209      17.833      17.015    
  16.743      17.015      17.833      19.209      21.160      23.663      26.584      29.624      32.333      34.218    
  41.638      40.779      38.342      34.733      30.564      26.501      23.060      20.487      18.783      17.833    
  17.529      17.833      18.783      20.487      23.060      26.501      30.564      34.733      38.342      40.779    
  57.469      55.288      49.935      43.825      37.889      31.907      26.733      22.912      20.487      19.209    
  18.817      19.209      20.487      22.912      26.733      31.907      37.889      43.825      49.935      55.288    
  116.27      108.65      89.322      66.870      49.656      39.770      32.440      26.733      23.060      21.160    
  20.592      21.160      23.060      26.733      32.440      39.770      49.656      66.870      89.322      108.65    
  259.16      240.96      193.29      133.93      83.070      52.681      39.770      31.907      26.501      23.663    
  22.826      23.663      26.501      31.907      39.770      52.681      83.070      133.93      193.29      240.96    
  504.26      470.06      379.28      262.36      155.20      83.070      49.656      37.889      30.564      26.584    
  25.417      26.584      30.564      37.889      49.656      83.070      155.20      262.36      379.28      470.06    
  830.47      775.89      630.52      441.15      262.36      133.93      66.870      43.825      34.733      29.624    
  28.126      29.624      34.733      43.825      66.870      133.93      262.36      441.15      630.52      775.89    
  1172.4      1096.3      894.09      630.52      379.28      193.29      89.322      49.935      38.342      32.333    
  30.565      32.333      38.342      49.935      89.322      193.29      379.28      630.52      894.09      1096.3    
  1435.6      1342.8      1096.3      775.89      470.06      240.96      108.65      55.288      40.779      34.218    
  32.279      34.218      40.779      55.288      108.65      240.96      470.06      775.89      1096.3      1342.8    
  1438.6      1344.9      1096.7      774.86      468.84      240.38      108.72      55.654      41.255      34.765    
  32.852      34.765      41.255      55.654      108.72      240.38      468.84      774.86      1096.7      1344.9    
  1344.9      1257.3      1025.0      723.55      436.86      223.52      101.81      53.737      40.463      34.152    
  32.293      34.152      40.463      53.737      101.81      223.52      436.86      723.55      1025.0      1257.3    
  1096.7      1025.0      834.63      587.07      352.11      179.50      84.330      49.035      38.211      32.439    
  30.744      32.439      38.211      49.035      84.330      179.50      352.11      587.07      834.63      1025.0    
  774.86      723.55      587.07      409.84      243.43      125.02      64.201      43.597      34.867      29.968    
  28.534      29.968      34.867      43.597      64.201      125.02      243.43      409.84      587.07      723.55    
  468.84      436.86      352.11      243.43      144.55      78.827      48.928      38.040      30.993      27.184    
  26.067      27.184      30.993      38.040      48.928      78.827      144.55      243.43      352.11      436.86    
  240.38      223.52      179.50      125.02      78.827      51.645      39.958      32.382      27.206      24.496    
  23.697      24.496      27.206      32.382      39.958      51.645      78.827      125.02      179.50      223.52    
  108.72      101.81      84.330      64.201      48.928      39.958      32.935      27.488      23.992      22.185    
  21.646      22.185      23.992      27.488      32.935      39.958      48.928      64.201      84.330      101.81    
  55.654      53.737      49.035      43.597      38.040      32.382      27.488      23.876      21.586      20.380    
  20.010      20.380      21.586      23.876      27.488      32.382      38.040      43.597      49.035      53.737    
  41.255      40.463      38.211      34.867      30.993      27.206      23.992      21.586      19.992      19.104    
  18.821      19.104      19.992      21.586      23.992      27.206      30.993      34.867      38.211      40.463    
  34.765      34.152      32.439      29.968      27.184      24.496      22.185      20.380      19.104      18.346    
  18.094      18.346      19.104      20.380      22.185      24.496      27.184      29.968      32.439      34.152    
  32.852      32.293      30.744      28.534      26.067      23.697      21.646      20.010      18.821      18.094    
  17.848      18.094      18.821      20.010      21.646      23.697      26.067      28.534      30.744      32.293    
  34.765      34.152      32.439      29.968      27.184      24.496      22.185      20.380      19.104      18.346    
  18.094      18.346      19.104      20.380      22.185      24.496      27.184      29.968      32.439      34.152    
  41.255      40.463      38.211      34.867      30.993      27.206      23.992      21.586      19.992      19.104    
  18.821      19.104      19.992      21.586      23.992      27.206      30.993      34.867      38.211      40.463    
  55.654      53.737      49.035      43.597      38.040      32.382      27.488      23.876      21.586      20.380    
  20.010      20.380      21.586      23.876      27.488      32.382      38.040      43.597      49.035      53.737    
  108.72      101.81      84.330      64.201      48.928      39.958      32.935      27.488      23.992      22.185    
  21.646      22.185      23.992      27.488      32.935      39.958      48.928      64.201      84.330      101.81    
  240.38      223.52      179.50      125.02      78.827      51.645      39.958      32.382      27.206      24.496    
  23.697      24.496      27.206      32.382      39.958      51.645      78.827      125.02      179.50      223.52    
  468.84      436.86      352.11      243.43      144.55      78.827      48.928      38.040      30.993      27.184    
  26.067      27.184      30.993      38.040      48.928      78.827      144.55      243.43      352.11      436.86    
  774.86      723.55      587.07      409.84      243.43      125.02      64.201      43.597      34.867      29.968    
  28.534      29.968      34.867      43.597      64.201      125.02      243.43      409.84      587.07      723.55    
  1096.7      1025.0      834.63      587.07      352.11      179.50      84.330      49.035      38.211      32.439    
  30.744      32.439      38.211      49.035      84.330      179.50      352.11      587.07      834.63      1025.0    
  1344.9      1257.3      1025.0      723.55      436.86      223.52      101.81      53.737      40.463      34.152    
  32.293      34.152      40.463      53.737      101.81      223.52      436.86      723.55      1025.0      1257.3    
  1189.1      1110.0      900.79      631.27      377.88      192.63      89.853      50.939      39.548      33.670    
  31.944      33.670      39.548      50.939      89.853      192.63      377.88      631.27      900.79      1110.0    
  1110.0      1036.0      840.52      588.44      351.61      179.21      84.652      49.587      38.870      33.164    
  31.491      33.164      38.870      49.587      84.652      179.21      351.61      588.44      840.52      1036.0    
  900.79      840.52      680.95      475.07      282.45      144.46      71.670      46.219      36.941      31.748    
  30.228      31.748      36.941      46.219      71.670      144.46      282.45      475.07      680.95      840.52    
  631.27      588.44      475.07      329.34      194.97      102.28      57.076      41.989      34.072      29.691    
  28.409      29.691      34.072      41.989      57.076      102.28      194.97      329.34      475.07      588.44    
  377.88      351.61      282.45      194.97      117.29      67.681      46.194      37.075      30.736      27.347    
  26.352      27.347      30.736      37.075      46.194      67.681      117.29      194.97      282.45      351.61    
  192.63      179.21      144.46      102.28      67.681      48.152      38.940      32.069      27.454      25.048    
  24.337      25.048      27.454      32.069      38.940      48.152      67.681      102.28      144.46      179.21    
  89.853      84.652      71.670      57.076      46.194      38.940      32.605      27.748      24.642      23.032    
  22.548      23.032      24.642      27.748      32.605      38.940      46.194      57.076      71.670      84.652    
  50.939      49.587      46.219      41.989      37.075      32.069      27.748      24.549      22.506      21.418    
  21.082      21.418      22.506      24.549      27.748      32.069      37.075      41.989      46.219      49.587    
  39.548      38.870      36.941      34.072      30.736      27.454      24.642      22.506      21.065      20.248    
  19.985      20.248      21.065      22.506      24.642      27.454      30.736      34.072      36.941      38.870    
  33.670      33.164      31.748      29.691      27.347      25.048      23.032      21.418      20.248      19.538    
  19.300      19.538      20.248      21.418      23.032      25.048      27.347      29.691      31.748      33.164    
  31.944      31.491      30.228      28.409      26.352      24.337      22.548      21.082      19.985      19.300    
  19.065      19.300      19.985      21.082      22.548      24.337      26.352      28.409      30.228      31.491    
  33.670      33.164      31.748      29.691      27.347      25.048      23.032      21.418      20.248      19.538    
  19.300      19.538      20.248      21.418      23.032      25.048      27.347      29.691      31.748      33.164    
  39.548      38.870      36.941      34.072      30.736      27.454      24.642      22.506      21.065      20.248    
  19.985      20.248      21.065      22.506      24.642      27.454      30.736      34.072      36.941      38.870    
  50.939      49.587      46.219      41.989      37.075      32.069      27.748      24.549      22.506      21.418    
  21.082      21.418      22.506      24.549      27.748      32.069      37.075      41.989      46.219      49.587    
  89.853      84.652      71.670      57.076      46.194      38.940      32.605      27.748      24.642      23.032    
  22.548      23.032      24.642      27.748      32.605      38.940      46.194      57.076      71.670      84.652    
  192.63      179.21      144.46      102.28      67.681      48.152      38.940      32.069      27.454      25.048    
  24.337      25.048      27.454      32.069      38.940      48.152      67.681      102.28      144.46      179.21    
  377.88      351.61      282.45      194.97      117.29      67.681      46.194      37.075      30.736      27.347    
  26.352      27.347      30.736      37.075      46.194      67.681      117.29      194.97      282.45      351.61    
  631.27      588.44      475.07      329.34      194.97      102.28      57.076      41.989      34.072      29.691    
  28.409      29.691      34.072      41.989      57.076      102.28      194.97      329.34      475.07      588.44    
  900.79      840.52      680.95      475.07      282.45      144.46      71.670      46.219      36.941      31.748    
  30.228      31.748      36.941      46.219      71.670      144.46      282.45      475.07      680.95      840.52    
  1110.0      1036.0      840.52      588.44      351.61      179.21      84.652      49.587      38.870      33.164    
  31.491      33.164      38.870      49.587      84.652      179.21      351.61      588.44      840.52      1036.0    
  863.52      803.82      646.90      447.18      263.71      134.99      68.630      45.835      37.004      32.038    
  30.587      32.038      37.004      45.835      68.630      134.99      263.71      447.18      646.90      803.82    
  803.82      748.17      601.88      415.71      245.02      126.00      65.510      45.021      36.474      31.667    
  30.262      31.667      36.474      45.021      65.510      126.00      245.02      415.71      601.88      748.17    
  646.90      601.88      483.51      333.15      196.40      103.13      57.882      42.809      34.967      30.621    
  29.350      30.621      34.967      42.809      57.882      103.13      196.40      333.15      483.51      601.88    
  447.18      415.71      333.15      229.13      136.53      76.379      49.558      39.457      32.722      29.086    
  28.020      29.086      32.722      39.457      49.558      76.379      136.53      229.13      333.15      415.71    
  263.71      245.02      196.40      136.53      85.793      55.688      43.022      35.406      30.105      27.312    
  26.489      27.312      30.105      35.406      43.022      55.688      85.793      136.53      196.40      245.02    
  134.99      126.00      103.13      76.379      55.688      44.367      37.130      31.326      27.519      25.543    
  24.956      25.543      27.519      31.326      37.130      44.367      55.688      76.379      103.13      126.00    
  68.630      65.510      57.882      49.558      43.022      37.130      31.824      27.825      25.284      23.963    
  23.563      23.963      25.284      27.825      31.824      37.130      43.022      49.558      57.882      65.510    
  45.835      45.021      42.809      39.457      35.406      31.326      27.825      25.233      23.567      22.672    
  22.394      22.672      23.567      25.233      27.825      31.326      35.406      39.457      42.809      45.021    
  37.004      36.474      34.967      32.722      30.105      27.519      25.284      23.567      22.394      21.719    
  21.499      21.719      22.394      23.567      25.284      27.519      30.105      32.722      34.967      36.474    
  32.038      31.667      30.621      29.086      27.312      25.543      23.963      22.672      21.719      21.131    
  20.932      21.131      21.719      22.672      23.963      25.543      27.312      29.086      30.621      31.667    
  30.587      30.262      29.350      28.020      26.489      24.956      23.563      22.394      21.499      20.932    
  20.736      20.932      21.499      22.394      23.563      24.956      26.489      28.020      29.350      30.262    
  32.038      31.667      30.621      29.086      27.312      25.543      23.963      22.672      21.719      21.131    
  20.932      21.131      21.719      22.672      23.963      25.543      27.312      29.086      30.621      31.667    
  37.004      36.474      34.967      32.722      30.105      27.519      25.284      23.567      22.394      21.719    
  21.499      21.719      22.394      23.567      25.284      27.519      30.105      32.722      34.967      36.474    
  45.835      45.021      42.809      39.457      35.406      31.326      27.825      25.233      23.567      22.672    
  22.394      22.672      23.567      25.233      27.825      31.326      35.406      39.457      42.809      45.021    
  68.630      65.510      57.882      49.558      43.022      37.130      31.824      27.825      25.284      23.963    
  23.563      23.963      25.284      27.825      31.824      37.130      43.022      49.558      57.882      65.510    
  134.99      126.00      103.13      76.379      55.688      44.367      37.130      31.326      27.519      25.543    
  24.956      25.543      27.519      31.326      37.130      44.367      55.688      76.379      103.13      126.00    
  263.71      245.02      196.40      136.53      85.793      55.688      43.022      35.406      30.105      27.312    
  26.489      27.312      30.105      35.406      43.022      55.688      85.793      136.53      196.40      245.02    
  447.18      415.71      333.15      229.13      136.53      76.379      49.558      39.457      32.722      29.086    
  28.020      29.086      32.722      39.457      49.558      76.379      136.53      229.13      333.15      415.71    
  646.90      601.88      483.51      333.15      196.40      103.13      57.882      42.809      34.967      30.621    
  29.350      30.621      34.967      42.809      57.882      103.13      196.40      333.15      483.51      601.88    
  803.82      748.17      601.88      415.71      245.02      126.00      65.510      45.021      36.474      31.667    
  30.262      31.667      36.474      45.021      65.510      126.00      245.02      415.71      601.88      748.17    
  544.66      505.02      401.87      273.51      160.38      86.585      52.886      41.269      34.176      30.314    
  29.187      30.314      34.176      41.269      52.886      86.585      160.38      273.51      401.87      505.02    
  505.02      468.23      372.54      253.64      149.25      81.796      51.483      40.695      33.812      30.081    
  28.992      30.081      33.812      40.695      51.483      81.796      149.25      253.64      372.54      468.23    
  401.87      372.54      296.41      202.34      120.94      69.963      48.075      39.037      32.775      29.424    
  28.443      29.424      32.775      39.037      48.075      69.963      120.94      202.34      296.41      372.54    
  273.51      253.64      202.34      139.90      87.640      56.903      44.082      36.515      31.239      28.459    
  27.642      28.459      31.239      36.515      44.082      56.903      87.640      139.90      202.34      253.64    
  160.38      149.25      120.94      87.640      61.536      47.362      39.661      33.533      29.466      27.355    
  26.731      27.355      29.466      33.533      39.661      47.362      61.536      87.640      120.94      149.25    
  86.585      81.796      69.963      56.903      47.362      40.867      35.063      30.595      27.747      26.283    
  25.848      26.283      27.747      30.595      35.063      40.867      47.362      56.903      69.963      81.796    
  52.886      51.483      48.075      44.082      39.661      35.063      31.066      28.134      26.308      25.371    
  25.090      25.371      26.308      28.134      31.066      35.063      39.661      44.082      48.075      51.483    
  41.269      40.695      39.037      36.515      33.533      30.595      28.134      26.360      25.254      24.677    
  24.501      24.677      25.254      26.360      28.134      30.595      33.533      36.515      39.037      40.695    
  34.176      33.812      32.775      31.239      29.466      27.747      26.308      25.254      24.573      24.202    
  24.086      24.202      24.573      25.254      26.308      27.747      29.466      31.239      32.775      33.812    
  30.314      30.081      29.424      28.459      27.355      26.283      25.371      24.677      24.202      23.928    
  23.839      23.928      24.202      24.677      25.371      26.283      27.355      28.459      29.424      30.081    
  29.187      28.992      28.443      27.642      26.731      25.848      25.090      24.501      24.086      23.839    
  23.756      23.839      24.086      24.501      25.090      25.848      26.731      27.642      28.443      28.992    
  30.314      30.081      29.424      28.459      27.355      26.283      25.371      24.677      24.202      23.928    
  23.839      23.928      24.202      24.677      25.371      26.283      27.355      28.459      29.424      30.081    
  34.176      33.812      32.775      31.239      29.466      27.747      26.308      25.254      24.573      24.202    
  24.086      24.202      24.573      25.254      26.308      27.747      29.466      31.239      32.775      33.812    
  41.269      40.695      39.037      36.515      33.533      30.595      28.134      26.360      25.254      24.677    
  24.501      24.677      25.254      26.360      28.134      30.595      33.533      36.515      39.037      40.695    
  52.886      51.483      48.075      44.082      39.661      35.063      31.066      28.134      26.308      25.371    
  25.090      25.371      26.308      28.134      31.066      35.063      39.661      44.082      48.075      51.483    
  86.585      81.796      69.963      56.903      47.362      40.867      35.063      30.595      27.747      26.283    
  25.848      26.283      27.747      30.595      35.063      40.867      47.362      56.903      69.963      81.796    
  160.38      149.25      120.94      87.640      61.536      47.362      39.661      33.533      29.466      27.355    
  26.731      27.355      29.466      33.533      39.661      47.362      61.536      87.640      120.94      149.25    
  273.51      253.64      202.34      139.90      87.640      56.903      44.082      36.515      31.239      28.459    
  27.642      28.459      31.239      36.515      44.082      56.903      87.640      139.90      202.34      253.64    
  401.87      372.54      296.41      202.34      120.94      69.963      48.075      39.037      32.775      29.424    
  28.443      29.424      32.775      39.037      48.075      69.963      120.94      202.34      296.41      372.54    
  505.02      468.23      372.54      253.64      149.25      81.796      51.483      40.695      33.812      30.081    
  28.992      30.081      33.812      40.695      51.483      81.796      149.25      253.64      372.54      468.23    
  292.71      270.45      213.55      145.51      89.708      57.473      44.287      36.775      31.561      28.830    
  28.033      28.830      31.561      36.775      44.287      57.473      89.708      145.51      213.55      270.45    
  270.45      249.97      197.68      135.36      84.613      55.660      43.709      36.398      31.360      28.728    
  27.959      28.728      31.360      36.398      43.709      55.660      84.613      135.36      197.68      249.97    
  213.55      197.68      157.35      109.85      72.094      51.320      42.036      35.326      30.801      28.452    
  27.762      28.452      30.801      35.326      42.036      51.320      72.094      109.85      157.35      197.68    
  145.51      135.36      109.85      80.582      58.410      46.593      39.453      33.748      30.013      28.090    
  27.524      28.090      30.013      33.748      39.453      46.593      58.410      80.582      109.85      135.36    
  89.708      84.613      72.094      58.410      48.563      42.084      36.362      31.971      29.188      27.772    
  27.355      27.772      29.188      31.971      36.362      42.084      48.563      58.410      72.094      84.613    
  57.473      55.660      51.320      46.593      42.084      37.410      33.323      30.343      28.525      27.620    
  27.356      27.620      28.525      30.343      33.323      37.410      42.084      46.593      51.320      55.660    
  44.287      43.709      42.036      39.453      36.362      33.323      30.832      29.126      28.150      27.696    
  27.569      27.696      28.150      29.126      30.832      33.323      36.362      39.453      42.036      43.709    
  36.775      36.398      35.326      33.748      31.971      30.343      29.126      28.398      28.068      27.967    
  27.950      27.967      28.068      28.398      29.126      30.343      31.971      33.748      35.326      36.398    
  31.561      31.360      30.801      30.013      29.188      28.525      28.150      28.068      28.174      28.319    
  28.382      28.319      28.174      28.068      28.150      28.525      29.188      30.013      30.801      31.360    
  28.830      28.728      28.452      28.090      27.772      27.620      27.696      27.967      28.319      28.607    
  28.718      28.607      28.319      27.967      27.696      27.620      27.772      28.090      28.452      28.728    
  28.033      27.959      27.762      27.524      27.355      27.356      27.569      27.950      28.382      28.718    
  28.844      28.718      28.382      27.950      27.569      27.356      27.355      27.524      27.762      27.959    
  28.830      28.728      28.452      28.090      27.772      27.620      27.696      27.967      28.319      28.607    
  28.718      28.607      28.319      27.967      27.696      27.620      27.772      28.090      28.452      28.728    
  31.561      31.360      30.801      30.013      29.188      28.525      28.150      28.068      28.174      28.319    
  28.382      28.319      28.174      28.068      28.150      28.525      29.188      30.013      30.801      31.360    
  36.775      36.398      35.326      33.748      31.971      30.343      29.126      28.398      28.068      27.967    
  27.950      27.967      28.068      28.398      29.126      30.343      31.971      33.748      35.326      36.398    
  44.287      43.709      42.036      39.453      36.362      33.323      30.832      29.126      28.150      27.696    
  27.569      27.696      28.150      29.126      30.832      33.323      36.362      39.453      42.036      43.709    
  57.473      55.660      51.320      46.593      42.084      37.410      33.323      30.343      28.525      27.620    
  27.356      27.620      28.525      30.343      33.323      37.410      42.084      46.593      51.320      55.660    
  89.708      84.613      72.094      58.410      48.563      42.084      36.362      31.971      29.188      27.772    
  27.355      27.772      29.188      31.971      36.362      42.084      48.563      58.410      72.094      84.613    
  145.51      135.36      109.85      80.582      58.410      46.593      39.453      33.748      30.013      28.090    
  27.524      28.090      30.013      33.748      39.453      46.593      58.410      80.582      109.85      135.36    
  213.55      197.68      157.35      109.85      72.094      51.320      42.036      35.326      30.801      28.452    
  27.762      28.452      30.801      35.326      42.036      51.320      72.094      109.85      157.35      197.68    
  270.45      249.97      197.68      135.36      84.613      55.660      43.709      36.398      31.360      28.728    
  27.959      28.728      31.360      36.398      43.709      55.660      84.613      135.36      197.68      249.97    
  134.75      125.09      101.18      74.531      55.119      44.925      38.179      32.891      29.495      27.768    
  27.264      27.768      29.495      32.891      38.179      44.925      55.119      74.531      101.18      125.09    
  125.09      116.35      94.764      70.856      53.589      44.369      37.822      32.718      29.453      27.794    
  27.309      27.794      29.453      32.718      37.822      44.369      53.589      70.856      94.764      116.35    